ITEM: TIMESTEP
0
ITEM: NUMBER OF ATOMS
108
ITEM: BOX BOUNDS pp pp pp
0.0000000000000000e+00 1.0845000000000001e+01
0.0000000000000000e+00 1.0845000000000001e+01
0.0000000000000000e+00 1.0845000000000001e+01
ITEM: ATOMS id type x y z fx fy fz
1 1 0 0 0 2.27574e-06 9.74607e-07 2.27574e-06
2 1 1.8075 1.8075 0 7.42291e-05 2.55465e-05 0.000103888
3 1 1.8075 0 1.8075 0.000195212 0.000195212 0.000195212
4 1 0 1.8075 1.8075 0.000103888 2.55465e-05 7.42291e-05
5 1 0 0 3.615 0.000103888 7.42291e-05 2.55465e-05
6 1 1.8075 1.8075 3.615 0.000171534 0.0001352 0.0001352
13 1 0 3.615 0 5.11053e-06 -2.57108e-06 5.11053e-06
15 1 1.8075 3.615 1.8075 0.00248894 -9.09523e-05 0.00248894
17 1 0 3.615 3.615 0.00106402 -0.000108603 -4.0392e-05
37 1 3.615 0 0 2.55465e-05 7.42291e-05 0.000103888
40 1 3.615 1.8075 1.8075 0.0001352 0.0001352 0.000171534
41 1 3.615 0 3.615 0.0001352 0.000171534 0.0001352
49 1 3.615 3.615 0 -4.0392e-05 -0.000108603 0.00106402
53 1 3.615 3.615 3.615 0.142332 -0.00203931 0.142332
38 1 5.4225 1.8075 0 -0.000108603 -4.0392e-05 0.00106402
39 1 5.4225 0 1.8075 -9.09523e-05 0.00248894 0.00248894
42 1 5.4225 1.8075 3.615 -0.00203931 0.142332 0.142332
51 1 5.4225 3.615 1.8075 -0.000117009 -0.000117009 -0.0111052
73 1 7.23 0 0 -2.78223e-05 2.24472e-05 0.000115898
76 1 7.23 1.8075 1.8075 -0.00074179 -0.00082366 -0.000123424
77 1 7.23 0 3.615 -0.00074179 -0.000123424 -0.00082366
85 1 7.23 3.615 0 3.52814e-05 -0.00012133 0.00120412
89 1 7.23 3.615 3.615 -0.0151777 -0.0100363 -0.0015321
74 1 9.0375 1.8075 0 3.43737e-05 -3.1538e-05 0.000131401
75 1 9.0375 0 1.8075 -0.00010426 5.73101e-05 5.73101e-05
78 1 9.0375 1.8075 3.615 -2.57024e-05 8.76018e-05 8.76018e-05
87 1 9.0375 3.615 1.8075 -0.000190193 -0.000114178 2.07859e-06
14 1 1.8075 5.4225 0 2.24472e-05 -2.78223e-05 0.000115898
16 1 0 5.4225 1.8075 0.000115898 -2.78223e-05 2.24472e-05
18 1 1.8075 5.4225 3.615 -0.000123424 -0.00074179 -0.00082366
25 1 0 7.23 0 2.83479e-06 1.59648e-06 2.83479e-06
27 1 1.8075 7.23 1.8075 5.73101e-05 -0.00010426 5.73101e-05
29 1 0 7.23 3.615 0.000131401 3.43737e-05 -3.1538e-05
52 1 3.615 5.4225 1.8075 -0.00082366 -0.00074179 -0.000123424
61 1 3.615 7.23 0 -3.1538e-05 3.43737e-05 0.000131401
65 1 3.615 7.23 3.615 8.76018e-05 -2.57024e-05 8.76018e-05
50 1 5.4225 5.4225 0 -0.00012133 3.52814e-05 0.00120412
54 1 5.4225 5.4225 3.615 -0.0100363 -0.0151777 -0.0015321
63 1 5.4225 7.23 1.8075 -0.000114178 -0.000190193 2.07859e-06
88 1 7.23 5.4225 1.8075 8.36842e-05 8.36842e-05 -1.56464e-05
97 1 7.23 7.23 0 2.87033e-05 9.88831e-05 0.000146784
101 1 7.23 7.23 3.615 -0.000993295 -9.32284e-05 -0.000882931
86 1 9.0375 5.4225 0 9.88831e-05 2.87033e-05 0.000146784
90 1 9.0375 5.4225 3.615 -9.32284e-05 -0.000993295 -0.000882931
99 1 9.0375 7.23 1.8075 5.6868e-05 5.6868e-05 -0.000116447
26 1 1.8075 9.0375 0 9.74607e-07 2.27574e-06 2.27574e-06
28 1 0 9.0375 1.8075 2.27574e-06 2.27574e-06 9.74607e-07
30 1 1.8075 9.0375 3.615 7.42291e-05 0.000103888 2.55465e-05
64 1 3.615 9.0375 1.8075 2.55465e-05 0.000103888 7.42291e-05
62 1 5.4225 9.0375 0 -2.57108e-06 5.11053e-06 5.11053e-06
66 1 5.4225 9.0375 3.615 -0.000108603 0.00106402 -4.0392e-05
100 1 7.23 9.0375 1.8075 -2.78223e-05 0.000115898 2.24472e-05
98 1 9.0375 9.0375 0 1.59648e-06 2.83479e-06 2.83479e-06
102 1 9.0375 9.0375 3.615 3.43737e-05 0.000131401 -3.1538e-05
7 1 1.8075 0 5.4225 0.00248894 0.00248894 -9.09523e-05
8 1 0 1.8075 5.4225 0.00106402 -4.0392e-05 -0.000108603
9 1 0 0 7.23 0.000115898 2.24472e-05 -2.78223e-05
10 1 1.8075 1.8075 7.23 -0.000123424 -0.00082366 -0.00074179
19 1 1.8075 3.615 5.4225 -0.0111052 -0.000117009 -0.000117009
21 1 0 3.615 7.23 0.00120412 -0.00012133 3.52814e-05
44 1 3.615 1.8075 5.4225 0.142332 0.142332 -0.00203931
45 1 3.615 0 7.23 -0.00082366 -0.000123424 -0.00074179
57 1 3.615 3.615 7.23 -0.0015321 -0.0100363 -0.0151777
43 1 5.4225 0 5.4225 -0.000117009 -0.0111052 -0.000117009
46 1 5.4225 1.8075 7.23 -0.0100363 -0.0015321 -0.0151777
80 1 7.23 1.8075 5.4225 -0.0151777 -0.0015321 -0.0100363
81 1 7.23 0 7.23 8.36842e-05 -1.56464e-05 8.36842e-05
93 1 7.23 3.615 7.23 0.273429 -0.0274226 0.273429
79 1 9.0375 0 5.4225 -0.000190193 2.07859e-06 -0.000114178
82 1 9.0375 1.8075 7.23 -9.32284e-05 -0.000882931 -0.000993295
91 1 9.0375 3.615 5.4225 -0.0106435 0.000248819 0.000248819
20 1 0 5.4225 5.4225 0.00120412 3.52814e-05 -0.00012133
22 1 1.8075 5.4225 7.23 -1.56464e-05 8.36842e-05 8.36842e-05
31 1 1.8075 7.23 5.4225 2.07859e-06 -0.000190193 -0.000114178
33 1 0 7.23 7.23 0.000146784 9.88831e-05 2.87033e-05
56 1 3.615 5.4225 5.4225 -0.0015321 -0.0151777 -0.0100363
69 1 3.615 7.23 7.23 -0.000882931 -9.32284e-05 -0.000993295
55 1 5.5225 3.715 5.5225 -0.735323 -0.735323 -0.735323
58 1 5.4225 5.4225 7.23 -0.0274226 0.273429 0.273429
67 1 5.4225 7.23 5.4225 0.000248819 -0.0106435 0.000248819
92 1 7.23 5.4225 5.4225 0.273429 0.273429 -0.0274226
105 1 7.23 7.23 7.23 -0.000223395 -0.000793084 -0.000223395
94 1 9.0375 5.4225 7.23 -0.000793084 -0.000223395 -0.000223395
103 1 9.0375 7.23 5.4225 0.0029599 0.0029599 -0.000143065
32 1 0 9.0375 5.4225 5.11053e-06 5.11053e-06 -2.57108e-06
34 1 1.8075 9.0375 7.23 2.24472e-05 0.000115898 -2.78223e-05
68 1 3.615 9.0375 5.4225 -4.0392e-05 0.00106402 -0.000108603
70 1 5.4225 9.0375 7.23 -0.00012133 0.00120412 3.52814e-05
104 1 7.23 9.0375 5.4225 3.52814e-05 0.00120412 -0.00012133
106 1 9.0375 9.0375 7.23 9.88831e-05 0.000146784 2.87033e-05
11 1 1.8075 0 9.0375 5.73101e-05 5.73101e-05 -0.00010426
12 1 0 1.8075 9.0375 0.000131401 -3.1538e-05 3.43737e-05
23 1 1.8075 3.615 9.0375 2.07859e-06 -0.000114178 -0.000190193
48 1 3.615 1.8075 9.0375 8.76018e-05 8.76018e-05 -2.57024e-05
47 1 5.4225 0 9.0375 -0.000114178 2.07859e-06 -0.000190193
59 1 5.4225 3.615 9.0375 0.000248819 0.000248819 -0.0106435
84 1 7.23 1.8075 9.0375 -0.000993295 -0.000882931 -9.32284e-05
83 1 9.0375 0 9.0375 5.6868e-05 -0.000116447 5.6868e-05
95 1 9.0375 3.615 9.0375 0.0029599 -0.000143065 0.0029599
24 1 0 5.4225 9.0375 0.000146784 2.87033e-05 9.88831e-05
35 1 1.8075 7.23 9.0375 -0.000116447 5.6868e-05 5.6868e-05
60 1 3.615 5.4225 9.0375 -0.000882931 -0.000993295 -9.32284e-05
71 1 5.4225 7.23 9.0375 -0.000143065 0.0029599 0.0029599
96 1 7.23 5.4225 9.0375 -0.000223395 -0.000223395 -0.000793084
107 1 9.0375 7.23 9.0375 0.000259512 0.000259512 0.000259512
36 1 0 9.0375 9.0375 2.83479e-06 2.83479e-06 1.59648e-06
72 1 3.615 9.0375 9.0375 -3.1538e-05 0.000131401 3.43737e-05
108 1 7.23 9.0375 9.0375 2.87033e-05 0.000146784 9.88831e-05
ITEM: TIMESTEP
1
ITEM: NUMBER OF ATOMS
108
ITEM: BOX BOUNDS pp pp pp
0.0000000000000000e+00 1.0845000000000001e+01
0.0000000000000000e+00 1.0845000000000001e+01
0.0000000000000000e+00 1.0845000000000001e+01
ITEM: ATOMS id type x y z fx fy fz
1 1 4.1645e-11 6.72176e-12 4.1645e-11 2.27585e-06 9.74618e-07 2.27585e-06
2 1 1.8075 1.8075 3.92441e-11 7.42292e-05 2.55467e-05 0.000103888
3 1 1.8075 2.02465e-11 1.8075 0.000195212 0.000195212 0.000195212
4 1 3.92441e-11 1.8075 1.8075 0.000103888 2.55467e-05 7.42292e-05
5 1 3.92441e-11 1.69047e-11 3.615 0.000103888 7.42292e-05 2.55467e-05
6 1 1.8075 1.8075 3.615 0.000171556 0.00013521 0.00013521
13 1 1.03826e-10 3.615 1.03826e-10 5.11277e-06 -2.57114e-06 5.11277e-06
15 1 1.8075 3.615 1.8075 0.00248896 -9.09528e-05 0.00248896
17 1 1.5266e-10 3.615 3.615 0.00106402 -0.000108603 -4.03918e-05
37 1 3.615 1.69047e-11 3.92441e-11 2.55467e-05 7.42292e-05 0.000103888
40 1 3.615 1.8075 1.8075 0.00013521 0.00013521 0.000171556
41 1 3.615 1.24217e-11 3.615 0.00013521 0.000171556 0.00013521
49 1 3.615 3.615 1.5266e-10 -4.03918e-05 -0.000108603 0.00106402
53 1 3.615 3.615 3.615 0.142332 -0.0020393 0.142332
38 1 5.4225 1.8075 1.5266e-10 -0.000108603 -4.03918e-05 0.00106402
39 1 5.4225 4.91819e-10 1.8075 -9.09528e-05 0.00248896 0.00248896
42 1 5.4225 1.8075 3.615 -0.0020393 0.142332 0.142332
51 1 5.4225 3.615 1.8075 -0.00011701 -0.00011701 -0.0111052
73 1 7.23 -7.9223e-12 7.68243e-11 -2.78226e-05 2.24466e-05 0.000115899
76 1 7.23 1.8075 1.8075 -0.0007418 -0.00082366 -0.000123413
77 1 7.23 -3.91594e-11 3.615 -0.0007418 -0.000123413 -0.00082366
85 1 7.23 3.615 2.58874e-10 3.52812e-05 -0.00012133 0.00120411
89 1 7.23 3.615 3.615 -0.0151776 -0.0100363 -0.00153208
74 1 9.0375 1.8075 1.13244e-10 3.43732e-05 -3.15385e-05 0.000131402
75 1 9.0375 8.7382e-12 1.8075 -0.000104259 5.73101e-05 5.73101e-05
78 1 9.0375 1.8075 3.615 -2.57032e-05 8.76023e-05 8.76023e-05
87 1 9.0375 3.615 1.8075 -0.000190194 -0.000114179 2.07979e-06
14 1 1.8075 5.4225 7.68243e-11 2.24466e-05 -2.78226e-05 0.000115899
16 1 7.68243e-11 5.4225 1.8075 0.000115899 -2.78226e-05 2.24466e-05
18 1 1.8075 5.4225 3.615 -0.000123413 -0.0007418 -0.00082366
25 1 6.15587e-11 7.23 6.15587e-11 2.83493e-06 1.59656e-06 2.83493e-06
27 1 1.8075 7.23 1.8075 5.73101e-05 -0.000104259 5.73101e-05
29 1 1.13244e-10 7.23 3.615 0.000131402 3.43732e-05 -3.15385e-05
52 1 3.615 5.4225 1.8075 -0.00082366 -0.0007418 -0.000123413
61 1 3.615 7.23 1.13244e-10 -3.15385e-05 3.43732e-05 0.000131402
65 1 3.615 7.23 3.615 8.76023e-05 -2.57032e-05 8.76023e-05
50 1 5.4225 5.4225 2.58874e-10 -0.00012133 3.52812e-05 0.00120411
54 1 5.4225 5.4225 3.615 -0.0100363 -0.0151776 -0.00153208
63 1 5.4225 7.23 1.8075 -0.000114179 -0.000190194 2.07979e-06
88 1 7.23 5.4225 1.8075 8.36834e-05 8.36834e-05 -1.5644e-05
97 1 7.23 7.23 1.46837e-10 2.87036e-05 9.88831e-05 0.000146784
101 1 7.23 7.23 3.615 -0.000993297 -9.32068e-05 -0.000882954
86 1 9.0375 5.4225 1.46837e-10 9.88831e-05 2.87036e-05 0.000146784
90 1 9.0375 5.4225 3.615 -9.32068e-05 -0.000993297 -0.000882954
99 1 9.0375 7.23 1.8075 5.68681e-05 5.68681e-05 -0.000116446
26 1 1.8075 9.0375 4.1645e-11 9.74618e-07 2.27585e-06 2.27585e-06
28 1 4.1645e-11 9.0375 1.8075 2.27585e-06 2.27585e-06 9.74618e-07
30 1 1.8075 9.0375 3.615 7.42292e-05 0.000103888 2.55467e-05
64 1 3.615 9.0375 1.8075 2.55467e-05 0.000103888 7.42292e-05
62 1 5.4225 9.0375 1.03826e-10 -2.57114e-06 5.11277e-06 5.11277e-06
66 1 5.4225 9.0375 3.615 -0.000108603 0.00106402 -4.03918e-05
100 1 7.23 9.0375 1.8075 -2.78226e-05 0.000115899 2.24466e-05
98 1 9.0375 9.0375 6.15587e-11 1.59656e-06 2.83493e-06 2.83493e-06
102 1 9.0375 9.0375 3.615 3.43732e-05 0.000131402 -3.15385e-05
7 1 1.8075 4.91819e-10 5.4225 0.00248896 0.00248896 -9.09528e-05
8 1 1.5266e-10 1.8075 5.4225 0.00106402 -4.03918e-05 -0.000108603
9 1 7.68243e-11 -7.9223e-12 7.23 0.000115899 2.24466e-05 -2.78226e-05
10 1 1.8075 1.8075 7.23 -0.000123413 -0.00082366 -0.0007418
19 1 1.8075 3.615 5.4225 -0.0111052 -0.00011701 -0.00011701
21 1 2.58874e-10 3.615 7.23 0.00120411 -0.00012133 3.52812e-05
44 1 3.615 1.8075 5.4225 0.142332 0.142332 -0.0020393
45 1 3.615 -3.91594e-11 7.23 -0.00082366 -0.000123413 -0.0007418
57 1 3.615 3.615 7.23 -0.00153208 -0.0100363 -0.0151776
43 1 5.4225 -2.11602e-09 5.4225 -0.00011701 -0.0111052 -0.00011701
46 1 5.4225 1.8075 7.23 -0.0100363 -0.00153208 -0.0151776
80 1 7.23 1.8075 5.4225 -0.0151776 -0.00153208 -0.0100363
81 1 7.23 -1.83408e-11 7.23 8.36834e-05 -1.5644e-05 8.36834e-05
93 1 7.23 3.615 7.23 0.273429 -0.0274225 0.273429
79 1 9.0375 1.10761e-11 5.4225 -0.000190194 2.07979e-06 -0.000114179
82 1 9.0375 1.8075 7.23 -9.32068e-05 -0.000882954 -0.000993297
91 1 9.0375 3.615 5.4225 -0.0106435 0.000248816 0.000248816
20 1 2.58874e-10 5.4225 5.4225 0.00120411 3.52812e-05 -0.00012133
22 1 1.8075 5.4225 7.23 -1.5644e-05 8.36834e-05 8.36834e-05
31 1 1.8075 7.23 5.4225 2.07979e-06 -0.000190194 -0.000114179
33 1 1.46837e-10 7.23 7.23 0.000146784 9.88831e-05 2.87036e-05
56 1 3.615 5.4225 5.4225 -0.00153208 -0.0151776 -0.0100363
69 1 3.615 7.23 7.23 -0.000882954 -9.32068e-05 -0.000993297
55 1 5.5225 3.715 5.5225 -0.735323 -0.735323 -0.735323
58 1 5.4225 5.4225 7.23 -0.0274225 0.273429 0.273429
67 1 5.4225 7.23 5.4225 0.000248816 -0.0106435 0.000248816
92 1 7.23 5.4225 5.4225 0.273429 0.273429 -0.0274225
105 1 7.23 7.23 7.23 -0.000223375 -0.000793044 -0.000223375
94 1 9.0375 5.4225 7.23 -0.000793044 -0.000223375 -0.000223375
103 1 9.0375 7.23 5.4225 0.00295994 0.00295994 -0.000143066
32 1 1.03826e-10 9.0375 5.4225 5.11277e-06 5.11277e-06 -2.57114e-06
34 1 1.8075 9.0375 7.23 2.24466e-05 0.000115899 -2.78226e-05
68 1 3.615 9.0375 5.4225 -4.03918e-05 0.00106402 -0.000108603
70 1 5.4225 9.0375 7.23 -0.00012133 0.00120411 3.52812e-05
104 1 7.23 9.0375 5.4225 3.52812e-05 0.00120411 -0.00012133
106 1 9.0375 9.0375 7.23 9.88831e-05 0.000146784 2.87036e-05
11 1 1.8075 8.7382e-12 9.0375 5.73101e-05 5.73101e-05 -0.000104259
12 1 1.13244e-10 1.8075 9.0375 0.000131402 -3.15385e-05 3.43732e-05
23 1 1.8075 3.615 9.0375 2.07979e-06 -0.000114179 -0.000190194
48 1 3.615 1.8075 9.0375 8.76023e-05 8.76023e-05 -2.57032e-05
47 1 5.4225 1.10761e-11 9.0375 -0.000114179 2.07979e-06 -0.000190194
59 1 5.4225 3.615 9.0375 0.000248816 0.000248816 -0.0106435
84 1 7.23 1.8075 9.0375 -0.000993297 -0.000882954 -9.32068e-05
83 1 9.0375 -2.551e-11 9.0375 5.68681e-05 -0.000116446 5.68681e-05
95 1 9.0375 3.615 9.0375 0.00295994 -0.000143066 0.00295994
24 1 1.46837e-10 5.4225 9.0375 0.000146784 2.87036e-05 9.88831e-05
35 1 1.8075 7.23 9.0375 -0.000116446 5.68681e-05 5.68681e-05
60 1 3.615 5.4225 9.0375 -0.000882954 -0.000993297 -9.32068e-05
71 1 5.4225 7.23 9.0375 -0.000143066 0.00295994 0.00295994
96 1 7.23 5.4225 9.0375 -0.000223375 -0.000223375 -0.000793044
107 1 9.0375 7.23 9.0375 0.000259512 0.000259512 0.000259512
36 1 6.15587e-11 9.0375 9.0375 2.83493e-06 2.83493e-06 1.59656e-06
72 1 3.615 9.0375 9.0375 -3.15385e-05 0.000131402 3.43732e-05
108 1 7.23 9.0375 9.0375 2.87036e-05 0.000146784 9.88831e-05
